n -t * -s 0  -x 93 -y 51 -Z 0 -z 20  -v circle -c black
n -t * -s 1  -x 136 -y 214 -Z 0 -z 20  -v circle -c black
n -t * -s 2  -x 229 -y 228 -Z 0 -z 20  -v circle -c black
n -t * -s 3  -x 24 -y 118 -Z 0 -z 20  -v circle -c black
n -t * -s 4  -x 198 -y 210 -Z 0 -z 20  -v circle -c black
n -t * -s 5  -x 231 -y 157 -Z 0 -z 20  -v circle -c black
n -t * -s 6  -x 102 -y 49 -Z 0 -z 20  -v circle -c black
n -t * -s 7  -x 50 -y 34 -Z 0 -z 20  -v circle -c black
n -t * -s 8  -x 165 -y 60 -Z 0 -z 20  -v circle -c black
n -t * -s 9  -x 199 -y 67 -Z 0 -z 20  -v circle -c black
n -t * -s 10  -x 90 -y 218 -Z 0 -z 20  -v circle -c black
n -t * -s 11  -x 190 -y 69 -Z 0 -z 20  -v circle -c black
n -t * -s 12  -x 118 -y 97 -Z 0 -z 20  -v circle -c black
n -t * -s 13  -x 113 -y 201 -Z 0 -z 20  -v circle -c black
n -t * -s 14  -x 17 -y 86 -Z 0 -z 20  -v circle -c black
n -t * -s 15  -x 162 -y 211 -Z 0 -z 20  -v circle -c black
n -t * -s 16  -x 152 -y 185 -Z 0 -z 20  -v circle -c black
n -t * -s 17  -x 139 -y 104 -Z 0 -z 20  -v circle -c black
n -t * -s 18  -x 51 -y 165 -Z 0 -z 20  -v circle -c black
n -t * -s 19  -x 81 -y 241 -Z 0 -z 20  -v circle -c black
V -t * -v 1.0a5 -a 0
W -t * -x 250 -y 250
A -t * -n 1 -p 0 -o 0x7fffffff -c 30 -a 1
A -t * -h 1 -m 1073741823 -s 0
+ -t 0.060443930 -s 6 -d -1 -p message -e 32 -c 2 -a 0 -i 0 -k RTR 
- -t 0.060443930 -s 6 -d -1 -p message -e 32 -c 2 -a 0 -i 0 -k RTR
h -t 0.060443930 -s 6 -d -1 -p message -e 32 -c 2 -a 0 -i 0 -k RTR
r -t 0.063853961 -s 0 -d -1 -p message -e 32 -c 2 -a 0 -i 0 -k RTR
r -t 0.063854099 -s 12 -d -1 -p message -e 32 -c 2 -a 0 -i 0 -k RTR
r -t 0.063854111 -s 7 -d -1 -p message -e 32 -c 2 -a 0 -i 0 -k RTR
r -t 0.063854144 -s 8 -d -1 -p message -e 32 -c 2 -a 0 -i 0 -k RTR
r -t 0.063854151 -s 17 -d -1 -p message -e 32 -c 2 -a 0 -i 0 -k RTR
r -t 0.063854231 -s 11 -d -1 -p message -e 32 -c 2 -a 0 -i 0 -k RTR
r -t 0.063854239 -s 14 -d -1 -p message -e 32 -c 2 -a 0 -i 0 -k RTR
r -t 0.063854259 -s 9 -d -1 -p message -e 32 -c 2 -a 0 -i 0 -k RTR
r -t 0.063854277 -s 3 -d -1 -p message -e 32 -c 2 -a 0 -i 0 -k RTR
r -t 0.063854353 -s 18 -d -1 -p message -e 32 -c 2 -a 0 -i 0 -k RTR
r -t 0.063854413 -s 16 -d -1 -p message -e 32 -c 2 -a 0 -i 0 -k RTR
r -t 0.063854438 -s 13 -d -1 -p message -e 32 -c 2 -a 0 -i 0 -k RTR
r -t 0.063854491 -s 5 -d -1 -p message -e 32 -c 2 -a 0 -i 0 -k RTR
r -t 0.063854492 -s 1 -d -1 -p message -e 32 -c 2 -a 0 -i 0 -k RTR
r -t 0.063854495 -s 10 -d -1 -p message -e 32 -c 2 -a 0 -i 0 -k RTR
r -t 0.063854506 -s 15 -d -1 -p message -e 32 -c 2 -a 0 -i 0 -k RTR
r -t 0.063854555 -s 4 -d -1 -p message -e 32 -c 2 -a 0 -i 0 -k RTR
r -t 0.063854574 -s 19 -d -1 -p message -e 32 -c 2 -a 0 -i 0 -k RTR
r -t 0.063854662 -s 2 -d -1 -p message -e 32 -c 2 -a 0 -i 0 -k RTR
+ -t 0.101148811 -s 18 -d -1 -p message -e 32 -c 2 -a 0 -i 1 -k RTR 
- -t 0.101148811 -s 18 -d -1 -p message -e 32 -c 2 -a 0 -i 1 -k RTR
h -t 0.101148811 -s 18 -d -1 -p message -e 32 -c 2 -a 0 -i 1 -k RTR
r -t 0.105198992 -s 3 -d -1 -p message -e 32 -c 2 -a 0 -i 1 -k RTR
r -t 0.105199031 -s 10 -d -1 -p message -e 32 -c 2 -a 0 -i 1 -k RTR
r -t 0.105199050 -s 13 -d -1 -p message -e 32 -c 2 -a 0 -i 1 -k RTR
r -t 0.105199084 -s 19 -d -1 -p message -e 32 -c 2 -a 0 -i 1 -k RTR
r -t 0.105199098 -s 14 -d -1 -p message -e 32 -c 2 -a 0 -i 1 -k RTR
r -t 0.105199129 -s 12 -d -1 -p message -e 32 -c 2 -a 0 -i 1 -k RTR
r -t 0.105199138 -s 1 -d -1 -p message -e 32 -c 2 -a 0 -i 1 -k RTR
r -t 0.105199154 -s 16 -d -1 -p message -e 32 -c 2 -a 0 -i 1 -k RTR
r -t 0.105199168 -s 17 -d -1 -p message -e 32 -c 2 -a 0 -i 1 -k RTR
r -t 0.105199212 -s 15 -d -1 -p message -e 32 -c 2 -a 0 -i 1 -k RTR
r -t 0.105199216 -s 0 -d -1 -p message -e 32 -c 2 -a 0 -i 1 -k RTR
r -t 0.105199234 -s 6 -d -1 -p message -e 32 -c 2 -a 0 -i 1 -k RTR
r -t 0.105199248 -s 7 -d -1 -p message -e 32 -c 2 -a 0 -i 1 -k RTR
r -t 0.105199324 -s 4 -d -1 -p message -e 32 -c 2 -a 0 -i 1 -k RTR
r -t 0.105199328 -s 8 -d -1 -p message -e 32 -c 2 -a 0 -i 1 -k RTR
r -t 0.105199374 -s 11 -d -1 -p message -e 32 -c 2 -a 0 -i 1 -k RTR
r -t 0.105199403 -s 9 -d -1 -p message -e 32 -c 2 -a 0 -i 1 -k RTR
r -t 0.105199412 -s 5 -d -1 -p message -e 32 -c 2 -a 0 -i 1 -k RTR
r -t 0.105199441 -s 2 -d -1 -p message -e 32 -c 2 -a 0 -i 1 -k RTR
+ -t 0.189994250 -s 16 -d -1 -p message -e 32 -c 2 -a 0 -i 2 -k RTR 
- -t 0.189994250 -s 16 -d -1 -p message -e 32 -c 2 -a 0 -i 2 -k RTR
h -t 0.189994250 -s 16 -d -1 -p message -e 32 -c 2 -a 0 -i 2 -k RTR
r -t 0.194364343 -s 15 -d -1 -p message -e 32 -c 2 -a 0 -i 2 -k RTR
r -t 0.194364360 -s 1 -d -1 -p message -e 32 -c 2 -a 0 -i 2 -k RTR
r -t 0.194364390 -s 13 -d -1 -p message -e 32 -c 2 -a 0 -i 2 -k RTR
r -t 0.194364424 -s 4 -d -1 -p message -e 32 -c 2 -a 0 -i 2 -k RTR
r -t 0.194364484 -s 10 -d -1 -p message -e 32 -c 2 -a 0 -i 2 -k RTR
r -t 0.194364523 -s 17 -d -1 -p message -e 32 -c 2 -a 0 -i 2 -k RTR
r -t 0.194364529 -s 5 -d -1 -p message -e 32 -c 2 -a 0 -i 2 -k RTR
r -t 0.194364544 -s 2 -d -1 -p message -e 32 -c 2 -a 0 -i 2 -k RTR
r -t 0.194364551 -s 19 -d -1 -p message -e 32 -c 2 -a 0 -i 2 -k RTR
r -t 0.194364564 -s 12 -d -1 -p message -e 32 -c 2 -a 0 -i 2 -k RTR
r -t 0.194364593 -s 18 -d -1 -p message -e 32 -c 2 -a 0 -i 2 -k RTR
r -t 0.194364657 -s 11 -d -1 -p message -e 32 -c 2 -a 0 -i 2 -k RTR
r -t 0.194364669 -s 8 -d -1 -p message -e 32 -c 2 -a 0 -i 2 -k RTR
r -t 0.194364673 -s 9 -d -1 -p message -e 32 -c 2 -a 0 -i 2 -k RTR
r -t 0.194364732 -s 3 -d -1 -p message -e 32 -c 2 -a 0 -i 2 -k RTR
r -t 0.194364733 -s 6 -d -1 -p message -e 32 -c 2 -a 0 -i 2 -k RTR
r -t 0.194364738 -s 0 -d -1 -p message -e 32 -c 2 -a 0 -i 2 -k RTR
r -t 0.194364808 -s 14 -d -1 -p message -e 32 -c 2 -a 0 -i 2 -k RTR
r -t 0.194364857 -s 7 -d -1 -p message -e 32 -c 2 -a 0 -i 2 -k RTR
+ -t 0.364814105 -s 14 -d -1 -p message -e 32 -c 2 -a 0 -i 3 -k RTR 
- -t 0.364814105 -s 14 -d -1 -p message -e 32 -c 2 -a 0 -i 3 -k RTR
h -t 0.364814105 -s 14 -d -1 -p message -e 32 -c 2 -a 0 -i 3 -k RTR
r -t 0.368224214 -s 3 -d -1 -p message -e 32 -c 2 -a 0 -i 3 -k RTR
r -t 0.368224310 -s 7 -d -1 -p message -e 32 -c 2 -a 0 -i 3 -k RTR
r -t 0.368224384 -s 0 -d -1 -p message -e 32 -c 2 -a 0 -i 3 -k RTR
r -t 0.368224392 -s 18 -d -1 -p message -e 32 -c 2 -a 0 -i 3 -k RTR
r -t 0.368224414 -s 6 -d -1 -p message -e 32 -c 2 -a 0 -i 3 -k RTR
r -t 0.368224444 -s 12 -d -1 -p message -e 32 -c 2 -a 0 -i 3 -k RTR
r -t 0.368224516 -s 17 -d -1 -p message -e 32 -c 2 -a 0 -i 3 -k RTR
r -t 0.368224604 -s 13 -d -1 -p message -e 32 -c 2 -a 0 -i 3 -k RTR
r -t 0.368224606 -s 8 -d -1 -p message -e 32 -c 2 -a 0 -i 3 -k RTR
r -t 0.368224608 -s 10 -d -1 -p message -e 32 -c 2 -a 0 -i 3 -k RTR
r -t 0.368224663 -s 16 -d -1 -p message -e 32 -c 2 -a 0 -i 3 -k RTR
r -t 0.368224664 -s 19 -d -1 -p message -e 32 -c 2 -a 0 -i 3 -k RTR
r -t 0.368224685 -s 11 -d -1 -p message -e 32 -c 2 -a 0 -i 3 -k RTR
r -t 0.368224688 -s 1 -d -1 -p message -e 32 -c 2 -a 0 -i 3 -k RTR
r -t 0.368224715 -s 9 -d -1 -p message -e 32 -c 2 -a 0 -i 3 -k RTR
r -t 0.368224743 -s 15 -d -1 -p message -e 32 -c 2 -a 0 -i 3 -k RTR
r -t 0.368224836 -s 4 -d -1 -p message -e 32 -c 2 -a 0 -i 3 -k RTR
r -t 0.368224857 -s 5 -d -1 -p message -e 32 -c 2 -a 0 -i 3 -k RTR
+ -t 0.378012593 -s 8 -d -1 -p message -e 32 -c 2 -a 0 -i 4 -k RTR 
- -t 0.378012593 -s 8 -d -1 -p message -e 32 -c 2 -a 0 -i 4 -k RTR
h -t 0.378012593 -s 8 -d -1 -p message -e 32 -c 2 -a 0 -i 4 -k RTR
r -t 0.380782681 -s 11 -d -1 -p message -e 32 -c 2 -a 0 -i 4 -k RTR
r -t 0.380782709 -s 9 -d -1 -p message -e 32 -c 2 -a 0 -i 4 -k RTR
r -t 0.380782763 -s 17 -d -1 -p message -e 32 -c 2 -a 0 -i 4 -k RTR
r -t 0.380782792 -s 12 -d -1 -p message -e 32 -c 2 -a 0 -i 4 -k RTR
r -t 0.380782806 -s 6 -d -1 -p message -e 32 -c 2 -a 0 -i 4 -k RTR
r -t 0.380782835 -s 0 -d -1 -p message -e 32 -c 2 -a 0 -i 4 -k RTR
r -t 0.380782984 -s 5 -d -1 -p message -e 32 -c 2 -a 0 -i 4 -k RTR
r -t 0.380782986 -s 7 -d -1 -p message -e 32 -c 2 -a 0 -i 4 -k RTR
r -t 0.380783012 -s 16 -d -1 -p message -e 32 -c 2 -a 0 -i 4 -k RTR
r -t 0.380783094 -s 14 -d -1 -p message -e 32 -c 2 -a 0 -i 4 -k RTR
r -t 0.380783094 -s 13 -d -1 -p message -e 32 -c 2 -a 0 -i 4 -k RTR
r -t 0.380783096 -s 15 -d -1 -p message -e 32 -c 2 -a 0 -i 4 -k RTR
r -t 0.380783101 -s 3 -d -1 -p message -e 32 -c 2 -a 0 -i 4 -k RTR
r -t 0.380783105 -s 4 -d -1 -p message -e 32 -c 2 -a 0 -i 4 -k RTR
r -t 0.380783109 -s 18 -d -1 -p message -e 32 -c 2 -a 0 -i 4 -k RTR
r -t 0.380783115 -s 1 -d -1 -p message -e 32 -c 2 -a 0 -i 4 -k RTR
r -t 0.380783176 -s 10 -d -1 -p message -e 32 -c 2 -a 0 -i 4 -k RTR
r -t 0.380783192 -s 2 -d -1 -p message -e 32 -c 2 -a 0 -i 4 -k RTR
r -t 0.380783258 -s 19 -d -1 -p message -e 32 -c 2 -a 0 -i 4 -k RTR
+ -t 0.420103316 -s 12 -d -1 -p message -e 32 -c 2 -a 0 -i 5 -k RTR 
- -t 0.420103316 -s 12 -d -1 -p message -e 32 -c 2 -a 0 -i 5 -k RTR
h -t 0.420103316 -s 12 -d -1 -p message -e 32 -c 2 -a 0 -i 5 -k RTR
r -t 0.423513390 -s 17 -d -1 -p message -e 32 -c 2 -a 0 -i 5 -k RTR
r -t 0.423513485 -s 6 -d -1 -p message -e 32 -c 2 -a 0 -i 5 -k RTR
r -t 0.423513490 -s 0 -d -1 -p message -e 32 -c 2 -a 0 -i 5 -k RTR
r -t 0.423513515 -s 8 -d -1 -p message -e 32 -c 2 -a 0 -i 5 -k RTR
r -t 0.423513573 -s 11 -d -1 -p message -e 32 -c 2 -a 0 -i 5 -k RTR
r -t 0.423513604 -s 9 -d -1 -p message -e 32 -c 2 -a 0 -i 5 -k RTR
r -t 0.423513625 -s 7 -d -1 -p message -e 32 -c 2 -a 0 -i 5 -k RTR
r -t 0.423513630 -s 16 -d -1 -p message -e 32 -c 2 -a 0 -i 5 -k RTR
r -t 0.423513634 -s 18 -d -1 -p message -e 32 -c 2 -a 0 -i 5 -k RTR
r -t 0.423513637 -s 3 -d -1 -p message -e 32 -c 2 -a 0 -i 5 -k RTR
r -t 0.423513655 -s 14 -d -1 -p message -e 32 -c 2 -a 0 -i 5 -k RTR
r -t 0.423513663 -s 13 -d -1 -p message -e 32 -c 2 -a 0 -i 5 -k RTR
r -t 0.423513711 -s 1 -d -1 -p message -e 32 -c 2 -a 0 -i 5 -k RTR
r -t 0.423513723 -s 15 -d -1 -p message -e 32 -c 2 -a 0 -i 5 -k RTR
r -t 0.423513730 -s 10 -d -1 -p message -e 32 -c 2 -a 0 -i 5 -k RTR
r -t 0.423513742 -s 5 -d -1 -p message -e 32 -c 2 -a 0 -i 5 -k RTR
r -t 0.423513777 -s 4 -d -1 -p message -e 32 -c 2 -a 0 -i 5 -k RTR
r -t 0.423513812 -s 19 -d -1 -p message -e 32 -c 2 -a 0 -i 5 -k RTR
r -t 0.423513888 -s 2 -d -1 -p message -e 32 -c 2 -a 0 -i 5 -k RTR
+ -t 0.529109525 -s 3 -d -1 -p message -e 32 -c 2 -a 0 -i 6 -k RTR 
- -t 0.529109525 -s 3 -d -1 -p message -e 32 -c 2 -a 0 -i 6 -k RTR
h -t 0.529109525 -s 3 -d -1 -p message -e 32 -c 2 -a 0 -i 6 -k RTR
r -t 0.532519634 -s 14 -d -1 -p message -e 32 -c 2 -a 0 -i 6 -k RTR
r -t 0.532519705 -s 18 -d -1 -p message -e 32 -c 2 -a 0 -i 6 -k RTR
r -t 0.532519818 -s 7 -d -1 -p message -e 32 -c 2 -a 0 -i 6 -k RTR
r -t 0.532519845 -s 0 -d -1 -p message -e 32 -c 2 -a 0 -i 6 -k RTR
r -t 0.532519846 -s 12 -d -1 -p message -e 32 -c 2 -a 0 -i 6 -k RTR
r -t 0.532519872 -s 6 -d -1 -p message -e 32 -c 2 -a 0 -i 6 -k RTR
r -t 0.532519911 -s 17 -d -1 -p message -e 32 -c 2 -a 0 -i 6 -k RTR
r -t 0.532519924 -s 10 -d -1 -p message -e 32 -c 2 -a 0 -i 6 -k RTR
r -t 0.532519930 -s 13 -d -1 -p message -e 32 -c 2 -a 0 -i 6 -k RTR
r -t 0.532519976 -s 19 -d -1 -p message -e 32 -c 2 -a 0 -i 6 -k RTR
r -t 0.532520006 -s 16 -d -1 -p message -e 32 -c 2 -a 0 -i 6 -k RTR
r -t 0.532520016 -s 1 -d -1 -p message -e 32 -c 2 -a 0 -i 6 -k RTR
r -t 0.532520033 -s 8 -d -1 -p message -e 32 -c 2 -a 0 -i 6 -k RTR
r -t 0.532520079 -s 15 -d -1 -p message -e 32 -c 2 -a 0 -i 6 -k RTR
r -t 0.532520101 -s 11 -d -1 -p message -e 32 -c 2 -a 0 -i 6 -k RTR
r -t 0.532520132 -s 9 -d -1 -p message -e 32 -c 2 -a 0 -i 6 -k RTR
r -t 0.532520181 -s 4 -d -1 -p message -e 32 -c 2 -a 0 -i 6 -k RTR
r -t 0.532520227 -s 5 -d -1 -p message -e 32 -c 2 -a 0 -i 6 -k RTR
r -t 0.532520300 -s 2 -d -1 -p message -e 32 -c 2 -a 0 -i 6 -k RTR
+ -t 0.655468297 -s 7 -d -1 -p message -e 32 -c 2 -a 0 -i 7 -k RTR 
- -t 0.655468297 -s 7 -d -1 -p message -e 32 -c 2 -a 0 -i 7 -k RTR
h -t 0.655468297 -s 7 -d -1 -p message -e 32 -c 2 -a 0 -i 7 -k RTR
r -t 0.658238451 -s 0 -d -1 -p message -e 32 -c 2 -a 0 -i 7 -k RTR
r -t 0.658238478 -s 6 -d -1 -p message -e 32 -c 2 -a 0 -i 7 -k RTR
r -t 0.658238503 -s 14 -d -1 -p message -e 32 -c 2 -a 0 -i 7 -k RTR
r -t 0.658238590 -s 3 -d -1 -p message -e 32 -c 2 -a 0 -i 7 -k RTR
r -t 0.658238606 -s 12 -d -1 -p message -e 32 -c 2 -a 0 -i 7 -k RTR
r -t 0.658238675 -s 17 -d -1 -p message -e 32 -c 2 -a 0 -i 7 -k RTR
r -t 0.658238690 -s 8 -d -1 -p message -e 32 -c 2 -a 0 -i 7 -k RTR
r -t 0.658238734 -s 18 -d -1 -p message -e 32 -c 2 -a 0 -i 7 -k RTR
r -t 0.658238778 -s 11 -d -1 -p message -e 32 -c 2 -a 0 -i 7 -k RTR
r -t 0.658238806 -s 9 -d -1 -p message -e 32 -c 2 -a 0 -i 7 -k RTR
r -t 0.658238892 -s 13 -d -1 -p message -e 32 -c 2 -a 0 -i 7 -k RTR
r -t 0.658238905 -s 16 -d -1 -p message -e 32 -c 2 -a 0 -i 7 -k RTR
r -t 0.658238925 -s 10 -d -1 -p message -e 32 -c 2 -a 0 -i 7 -k RTR
r -t 0.658238962 -s 1 -d -1 -p message -e 32 -c 2 -a 0 -i 7 -k RTR
r -t 0.658238995 -s 19 -d -1 -p message -e 32 -c 2 -a 0 -i 7 -k RTR
r -t 0.658238996 -s 15 -d -1 -p message -e 32 -c 2 -a 0 -i 7 -k RTR
r -t 0.658239027 -s 5 -d -1 -p message -e 32 -c 2 -a 0 -i 7 -k RTR
r -t 0.658239064 -s 4 -d -1 -p message -e 32 -c 2 -a 0 -i 7 -k RTR
+ -t 0.860493949 -s 5 -d -1 -p message -e 32 -c 2 -a 0 -i 8 -k RTR 
- -t 0.860493949 -s 5 -d -1 -p message -e 32 -c 2 -a 0 -i 8 -k RTR
h -t 0.860493949 -s 5 -d -1 -p message -e 32 -c 2 -a 0 -i 8 -k RTR
r -t 0.863264157 -s 4 -d -1 -p message -e 32 -c 2 -a 0 -i 8 -k RTR
r -t 0.863264185 -s 2 -d -1 -p message -e 32 -c 2 -a 0 -i 8 -k RTR
r -t 0.863264228 -s 16 -d -1 -p message -e 32 -c 2 -a 0 -i 8 -k RTR
r -t 0.863264241 -s 15 -d -1 -p message -e 32 -c 2 -a 0 -i 8 -k RTR
r -t 0.863264267 -s 9 -d -1 -p message -e 32 -c 2 -a 0 -i 8 -k RTR
r -t 0.863264272 -s 11 -d -1 -p message -e 32 -c 2 -a 0 -i 8 -k RTR
r -t 0.863264302 -s 17 -d -1 -p message -e 32 -c 2 -a 0 -i 8 -k RTR
r -t 0.863264318 -s 1 -d -1 -p message -e 32 -c 2 -a 0 -i 8 -k RTR
r -t 0.863264340 -s 8 -d -1 -p message -e 32 -c 2 -a 0 -i 8 -k RTR
r -t 0.863264368 -s 13 -d -1 -p message -e 32 -c 2 -a 0 -i 8 -k RTR
r -t 0.863264375 -s 12 -d -1 -p message -e 32 -c 2 -a 0 -i 8 -k RTR
r -t 0.863264461 -s 10 -d -1 -p message -e 32 -c 2 -a 0 -i 8 -k RTR
r -t 0.863264509 -s 6 -d -1 -p message -e 32 -c 2 -a 0 -i 8 -k RTR
r -t 0.863264522 -s 19 -d -1 -p message -e 32 -c 2 -a 0 -i 8 -k RTR
r -t 0.863264529 -s 0 -d -1 -p message -e 32 -c 2 -a 0 -i 8 -k RTR
r -t 0.863264549 -s 18 -d -1 -p message -e 32 -c 2 -a 0 -i 8 -k RTR
r -t 0.863264651 -s 3 -d -1 -p message -e 32 -c 2 -a 0 -i 8 -k RTR
r -t 0.863264678 -s 7 -d -1 -p message -e 32 -c 2 -a 0 -i 8 -k RTR
r -t 0.863264700 -s 14 -d -1 -p message -e 32 -c 2 -a 0 -i 8 -k RTR
+ -t 0.986493297 -s 17 -d -1 -p message -e 32 -c 2 -a 0 -i 9 -k RTR 
- -t 0.986493297 -s 17 -d -1 -p message -e 32 -c 2 -a 0 -i 9 -k RTR
h -t 0.986493297 -s 17 -d -1 -p message -e 32 -c 2 -a 0 -i 9 -k RTR
r -t 0.989583371 -s 12 -d -1 -p message -e 32 -c 2 -a 0 -i 9 -k RTR
r -t 0.989583467 -s 8 -d -1 -p message -e 32 -c 2 -a 0 -i 9 -k RTR
r -t 0.989583503 -s 11 -d -1 -p message -e 32 -c 2 -a 0 -i 9 -k RTR
r -t 0.989583518 -s 6 -d -1 -p message -e 32 -c 2 -a 0 -i 9 -k RTR
r -t 0.989583531 -s 0 -d -1 -p message -e 32 -c 2 -a 0 -i 9 -k RTR
r -t 0.989583532 -s 9 -d -1 -p message -e 32 -c 2 -a 0 -i 9 -k RTR
r -t 0.989583570 -s 16 -d -1 -p message -e 32 -c 2 -a 0 -i 9 -k RTR
r -t 0.989583631 -s 13 -d -1 -p message -e 32 -c 2 -a 0 -i 9 -k RTR
r -t 0.989583651 -s 5 -d -1 -p message -e 32 -c 2 -a 0 -i 9 -k RTR
r -t 0.989583654 -s 18 -d -1 -p message -e 32 -c 2 -a 0 -i 9 -k RTR
r -t 0.989583662 -s 15 -d -1 -p message -e 32 -c 2 -a 0 -i 9 -k RTR
r -t 0.989583664 -s 1 -d -1 -p message -e 32 -c 2 -a 0 -i 9 -k RTR
r -t 0.989583674 -s 7 -d -1 -p message -e 32 -c 2 -a 0 -i 9 -k RTR
r -t 0.989583683 -s 3 -d -1 -p message -e 32 -c 2 -a 0 -i 9 -k RTR
r -t 0.989583701 -s 4 -d -1 -p message -e 32 -c 2 -a 0 -i 9 -k RTR
r -t 0.989583708 -s 14 -d -1 -p message -e 32 -c 2 -a 0 -i 9 -k RTR
r -t 0.989583710 -s 10 -d -1 -p message -e 32 -c 2 -a 0 -i 9 -k RTR
r -t 0.989583793 -s 19 -d -1 -p message -e 32 -c 2 -a 0 -i 9 -k RTR
r -t 0.989583807 -s 2 -d -1 -p message -e 32 -c 2 -a 0 -i 9 -k RTR
+ -t 1.000000000 -s 16 -d -1 -p tcp -e 40 -c 2 -a 0 -i 10 -k AGT 
- -t 1.000000000 -s 16 -d -1 -p tcp -e 40 -c 2 -a 0 -i 10 -k AGT
h -t 1.000000000 -s 16 -d -1 -p tcp -e 40 -c 2 -a 0 -i 10 -k AGT
+ -t 1.000000000 -s 14 -d -1 -p tcp -e 40 -c 2 -a 0 -i 11 -k AGT 
- -t 1.000000000 -s 14 -d -1 -p tcp -e 40 -c 2 -a 0 -i 11 -k AGT
h -t 1.000000000 -s 14 -d -1 -p tcp -e 40 -c 2 -a 0 -i 11 -k AGT
+ -t 1.000000000 -s 14 -d -1 -p tcp -e 40 -c 2 -a 0 -i 12 -k AGT 
- -t 1.000000000 -s 14 -d -1 -p tcp -e 40 -c 2 -a 0 -i 12 -k AGT
h -t 1.000000000 -s 14 -d -1 -p tcp -e 40 -c 2 -a 0 -i 12 -k AGT
+ -t 1.000000000 -s 12 -d -1 -p tcp -e 40 -c 2 -a 0 -i 13 -k AGT 
- -t 1.000000000 -s 12 -d -1 -p tcp -e 40 -c 2 -a 0 -i 13 -k AGT
h -t 1.000000000 -s 12 -d -1 -p tcp -e 40 -c 2 -a 0 -i 13 -k AGT
+ -t 1.000000000 -s 12 -d -1 -p tcp -e 40 -c 2 -a 0 -i 14 -k AGT 
- -t 1.000000000 -s 12 -d -1 -p tcp -e 40 -c 2 -a 0 -i 14 -k AGT
h -t 1.000000000 -s 12 -d -1 -p tcp -e 40 -c 2 -a 0 -i 14 -k AGT
+ -t 1.000000000 -s 12 -d -1 -p tcp -e 40 -c 2 -a 0 -i 15 -k AGT 
- -t 1.000000000 -s 12 -d -1 -p tcp -e 40 -c 2 -a 0 -i 15 -k AGT
h -t 1.000000000 -s 12 -d -1 -p tcp -e 40 -c 2 -a 0 -i 15 -k AGT
+ -t 1.000000000 -s 18 -d -1 -p tcp -e 40 -c 2 -a 0 -i 16 -k AGT 
- -t 1.000000000 -s 18 -d -1 -p tcp -e 40 -c 2 -a 0 -i 16 -k AGT
h -t 1.000000000 -s 18 -d -1 -p tcp -e 40 -c 2 -a 0 -i 16 -k AGT
+ -t 1.000000000 -s 15 -d -1 -p tcp -e 40 -c 2 -a 0 -i 17 -k AGT 
- -t 1.000000000 -s 15 -d -1 -p tcp -e 40 -c 2 -a 0 -i 17 -k AGT
h -t 1.000000000 -s 15 -d -1 -p tcp -e 40 -c 2 -a 0 -i 17 -k AGT
+ -t 1.000000000 -s 14 -d -1 -p tcp -e 40 -c 2 -a 0 -i 18 -k AGT 
- -t 1.000000000 -s 14 -d -1 -p tcp -e 40 -c 2 -a 0 -i 18 -k AGT
h -t 1.000000000 -s 14 -d -1 -p tcp -e 40 -c 2 -a 0 -i 18 -k AGT
+ -t 1.000000000 -s 12 -d -1 -p tcp -e 40 -c 2 -a 0 -i 19 -k AGT 
- -t 1.000000000 -s 12 -d -1 -p tcp -e 40 -c 2 -a 0 -i 19 -k AGT
h -t 1.000000000 -s 12 -d -1 -p tcp -e 40 -c 2 -a 0 -i 19 -k AGT
+ -t 1.098456509 -s 1 -d -1 -p message -e 32 -c 2 -a 0 -i 20 -k RTR 
- -t 1.098456509 -s 1 -d -1 -p message -e 32 -c 2 -a 0 -i 20 -k RTR
h -t 1.098456509 -s 1 -d -1 -p message -e 32 -c 2 -a 0 -i 20 -k RTR
r -t 1.101866596 -s 15 -d -1 -p message -e 32 -c 2 -a 0 -i 20 -k RTR
r -t 1.101866597 -s 13 -d -1 -p message -e 32 -c 2 -a 0 -i 20 -k RTR
r -t 1.101866619 -s 16 -d -1 -p message -e 32 -c 2 -a 0 -i 20 -k RTR
r -t 1.101866663 -s 10 -d -1 -p message -e 32 -c 2 -a 0 -i 20 -k RTR
r -t 1.101866713 -s 19 -d -1 -p message -e 32 -c 2 -a 0 -i 20 -k RTR
r -t 1.101866716 -s 4 -d -1 -p message -e 32 -c 2 -a 0 -i 20 -k RTR
r -t 1.101866822 -s 2 -d -1 -p message -e 32 -c 2 -a 0 -i 20 -k RTR
r -t 1.101866836 -s 18 -d -1 -p message -e 32 -c 2 -a 0 -i 20 -k RTR
r -t 1.101866876 -s 17 -d -1 -p message -e 32 -c 2 -a 0 -i 20 -k RTR
r -t 1.101866878 -s 5 -d -1 -p message -e 32 -c 2 -a 0 -i 20 -k RTR
r -t 1.101866903 -s 12 -d -1 -p message -e 32 -c 2 -a 0 -i 20 -k RTR
r -t 1.101867000 -s 3 -d -1 -p message -e 32 -c 2 -a 0 -i 20 -k RTR
r -t 1.101867025 -s 11 -d -1 -p message -e 32 -c 2 -a 0 -i 20 -k RTR
r -t 1.101867031 -s 8 -d -1 -p message -e 32 -c 2 -a 0 -i 20 -k RTR
r -t 1.101867042 -s 9 -d -1 -p message -e 32 -c 2 -a 0 -i 20 -k RTR
r -t 1.101867070 -s 6 -d -1 -p message -e 32 -c 2 -a 0 -i 20 -k RTR
r -t 1.101867071 -s 0 -d -1 -p message -e 32 -c 2 -a 0 -i 20 -k RTR
r -t 1.101867091 -s 14 -d -1 -p message -e 32 -c 2 -a 0 -i 20 -k RTR
r -t 1.101867174 -s 7 -d -1 -p message -e 32 -c 2 -a 0 -i 20 -k RTR
+ -t 1.111391537 -s 4 -d -1 -p message -e 32 -c 2 -a 0 -i 21 -k RTR 
- -t 1.111391537 -s 4 -d -1 -p message -e 32 -c 2 -a 0 -i 21 -k RTR
h -t 1.111391537 -s 4 -d -1 -p message -e 32 -c 2 -a 0 -i 21 -k RTR
r -t 1.116081657 -s 2 -d -1 -p message -e 32 -c 2 -a 0 -i 21 -k RTR
r -t 1.116081657 -s 15 -d -1 -p message -e 32 -c 2 -a 0 -i 21 -k RTR
r -t 1.116081712 -s 16 -d -1 -p message -e 32 -c 2 -a 0 -i 21 -k RTR
r -t 1.116081744 -s 1 -d -1 -p message -e 32 -c 2 -a 0 -i 21 -k RTR
r -t 1.116081745 -s 5 -d -1 -p message -e 32 -c 2 -a 0 -i 21 -k RTR
r -t 1.116081822 -s 13 -d -1 -p message -e 32 -c 2 -a 0 -i 21 -k RTR
r -t 1.116081898 -s 10 -d -1 -p message -e 32 -c 2 -a 0 -i 21 -k RTR
r -t 1.116081941 -s 19 -d -1 -p message -e 32 -c 2 -a 0 -i 21 -k RTR
r -t 1.116081942 -s 17 -d -1 -p message -e 32 -c 2 -a 0 -i 21 -k RTR
r -t 1.116081999 -s 12 -d -1 -p message -e 32 -c 2 -a 0 -i 21 -k RTR
r -t 1.116082008 -s 11 -d -1 -p message -e 32 -c 2 -a 0 -i 21 -k RTR
r -t 1.116082014 -s 9 -d -1 -p message -e 32 -c 2 -a 0 -i 21 -k RTR
r -t 1.116082049 -s 8 -d -1 -p message -e 32 -c 2 -a 0 -i 21 -k RTR
r -t 1.116082050 -s 18 -d -1 -p message -e 32 -c 2 -a 0 -i 21 -k RTR
r -t 1.116082162 -s 6 -d -1 -p message -e 32 -c 2 -a 0 -i 21 -k RTR
r -t 1.116082172 -s 0 -d -1 -p message -e 32 -c 2 -a 0 -i 21 -k RTR
r -t 1.116082193 -s 3 -d -1 -p message -e 32 -c 2 -a 0 -i 21 -k RTR
r -t 1.116082269 -s 14 -d -1 -p message -e 32 -c 2 -a 0 -i 21 -k RTR
r -t 1.116082304 -s 7 -d -1 -p message -e 32 -c 2 -a 0 -i 21 -k RTR
+ -t 1.396028090 -s 13 -d -1 -p message -e 32 -c 2 -a 0 -i 22 -k RTR 
- -t 1.396028090 -s 13 -d -1 -p message -e 32 -c 2 -a 0 -i 22 -k RTR
h -t 1.396028090 -s 13 -d -1 -p message -e 32 -c 2 -a 0 -i 22 -k RTR
r -t 1.398478178 -s 1 -d -1 -p message -e 32 -c 2 -a 0 -i 22 -k RTR
r -t 1.398478185 -s 10 -d -1 -p message -e 32 -c 2 -a 0 -i 22 -k RTR
r -t 1.398478230 -s 16 -d -1 -p message -e 32 -c 2 -a 0 -i 22 -k RTR
r -t 1.398478256 -s 15 -d -1 -p message -e 32 -c 2 -a 0 -i 22 -k RTR
r -t 1.398478260 -s 19 -d -1 -p message -e 32 -c 2 -a 0 -i 22 -k RTR
r -t 1.398478329 -s 18 -d -1 -p message -e 32 -c 2 -a 0 -i 22 -k RTR
r -t 1.398478374 -s 4 -d -1 -p message -e 32 -c 2 -a 0 -i 22 -k RTR
r -t 1.398478424 -s 17 -d -1 -p message -e 32 -c 2 -a 0 -i 22 -k RTR
r -t 1.398478437 -s 12 -d -1 -p message -e 32 -c 2 -a 0 -i 22 -k RTR
r -t 1.398478487 -s 2 -d -1 -p message -e 32 -c 2 -a 0 -i 22 -k RTR
r -t 1.398478495 -s 3 -d -1 -p message -e 32 -c 2 -a 0 -i 22 -k RTR
r -t 1.398478509 -s 5 -d -1 -p message -e 32 -c 2 -a 0 -i 22 -k RTR
r -t 1.398478589 -s 14 -d -1 -p message -e 32 -c 2 -a 0 -i 22 -k RTR
r -t 1.398478590 -s 8 -d -1 -p message -e 32 -c 2 -a 0 -i 22 -k RTR
r -t 1.398478594 -s 0 -d -1 -p message -e 32 -c 2 -a 0 -i 22 -k RTR
r -t 1.398478598 -s 6 -d -1 -p message -e 32 -c 2 -a 0 -i 22 -k RTR
r -t 1.398478599 -s 11 -d -1 -p message -e 32 -c 2 -a 0 -i 22 -k RTR
r -t 1.398478620 -s 9 -d -1 -p message -e 32 -c 2 -a 0 -i 22 -k RTR
r -t 1.398478684 -s 7 -d -1 -p message -e 32 -c 2 -a 0 -i 22 -k RTR
+ -t 1.401859067 -s 0 -d -1 -p message -e 32 -c 2 -a 0 -i 23 -k RTR 
- -t 1.401859067 -s 0 -d -1 -p message -e 32 -c 2 -a 0 -i 23 -k RTR
h -t 1.401859067 -s 0 -d -1 -p message -e 32 -c 2 -a 0 -i 23 -k RTR
r -t 1.405589098 -s 6 -d -1 -p message -e 32 -c 2 -a 0 -i 23 -k RTR
r -t 1.405589222 -s 7 -d -1 -p message -e 32 -c 2 -a 0 -i 23 -k RTR
r -t 1.405589242 -s 12 -d -1 -p message -e 32 -c 2 -a 0 -i 23 -k RTR
r -t 1.405589301 -s 17 -d -1 -p message -e 32 -c 2 -a 0 -i 23 -k RTR
r -t 1.405589309 -s 8 -d -1 -p message -e 32 -c 2 -a 0 -i 23 -k RTR
r -t 1.405589346 -s 14 -d -1 -p message -e 32 -c 2 -a 0 -i 23 -k RTR
r -t 1.405589388 -s 3 -d -1 -p message -e 32 -c 2 -a 0 -i 23 -k RTR
r -t 1.405589396 -s 11 -d -1 -p message -e 32 -c 2 -a 0 -i 23 -k RTR
r -t 1.405589425 -s 9 -d -1 -p message -e 32 -c 2 -a 0 -i 23 -k RTR
r -t 1.405589472 -s 18 -d -1 -p message -e 32 -c 2 -a 0 -i 23 -k RTR
r -t 1.405589556 -s 16 -d -1 -p message -e 32 -c 2 -a 0 -i 23 -k RTR
r -t 1.405589572 -s 13 -d -1 -p message -e 32 -c 2 -a 0 -i 23 -k RTR
r -t 1.405589624 -s 10 -d -1 -p message -e 32 -c 2 -a 0 -i 23 -k RTR
r -t 1.405589629 -s 1 -d -1 -p message -e 32 -c 2 -a 0 -i 23 -k RTR
r -t 1.405589648 -s 5 -d -1 -p message -e 32 -c 2 -a 0 -i 23 -k RTR
r -t 1.405589648 -s 15 -d -1 -p message -e 32 -c 2 -a 0 -i 23 -k RTR
r -t 1.405589702 -s 19 -d -1 -p message -e 32 -c 2 -a 0 -i 23 -k RTR
r -t 1.405589703 -s 4 -d -1 -p message -e 32 -c 2 -a 0 -i 23 -k RTR
r -t 1.405589812 -s 2 -d -1 -p message -e 32 -c 2 -a 0 -i 23 -k RTR
+ -t 1.549790618 -s 11 -d -1 -p message -e 32 -c 2 -a 0 -i 24 -k RTR 
- -t 1.549790618 -s 11 -d -1 -p message -e 32 -c 2 -a 0 -i 24 -k RTR
h -t 1.549790618 -s 11 -d -1 -p message -e 32 -c 2 -a 0 -i 24 -k RTR
r -t 1.554480649 -s 9 -d -1 -p message -e 32 -c 2 -a 0 -i 24 -k RTR
r -t 1.554480707 -s 8 -d -1 -p message -e 32 -c 2 -a 0 -i 24 -k RTR
r -t 1.554480825 -s 17 -d -1 -p message -e 32 -c 2 -a 0 -i 24 -k RTR
r -t 1.554480876 -s 12 -d -1 -p message -e 32 -c 2 -a 0 -i 24 -k RTR
r -t 1.554480919 -s 6 -d -1 -p message -e 32 -c 2 -a 0 -i 24 -k RTR
r -t 1.554480942 -s 5 -d -1 -p message -e 32 -c 2 -a 0 -i 24 -k RTR
r -t 1.554480947 -s 0 -d -1 -p message -e 32 -c 2 -a 0 -i 24 -k RTR
r -t 1.554481025 -s 16 -d -1 -p message -e 32 -c 2 -a 0 -i 24 -k RTR
r -t 1.554481089 -s 4 -d -1 -p message -e 32 -c 2 -a 0 -i 24 -k RTR
r -t 1.554481099 -s 7 -d -1 -p message -e 32 -c 2 -a 0 -i 24 -k RTR
r -t 1.554481101 -s 15 -d -1 -p message -e 32 -c 2 -a 0 -i 24 -k RTR
r -t 1.554481128 -s 13 -d -1 -p message -e 32 -c 2 -a 0 -i 24 -k RTR
r -t 1.554481134 -s 1 -d -1 -p message -e 32 -c 2 -a 0 -i 24 -k RTR
r -t 1.554481164 -s 2 -d -1 -p message -e 32 -c 2 -a 0 -i 24 -k RTR
r -t 1.554481181 -s 18 -d -1 -p message -e 32 -c 2 -a 0 -i 24 -k RTR
r -t 1.554481195 -s 3 -d -1 -p message -e 32 -c 2 -a 0 -i 24 -k RTR
r -t 1.554481198 -s 14 -d -1 -p message -e 32 -c 2 -a 0 -i 24 -k RTR
r -t 1.554481216 -s 10 -d -1 -p message -e 32 -c 2 -a 0 -i 24 -k RTR
r -t 1.554481297 -s 19 -d -1 -p message -e 32 -c 2 -a 0 -i 24 -k RTR
+ -t 1.571165976 -s 9 -d -1 -p message -e 32 -c 2 -a 0 -i 25 -k RTR 
- -t 1.571165976 -s 9 -d -1 -p message -e 32 -c 2 -a 0 -i 25 -k RTR
h -t 1.571165976 -s 9 -d -1 -p message -e 32 -c 2 -a 0 -i 25 -k RTR
r -t 1.574576007 -s 11 -d -1 -p message -e 32 -c 2 -a 0 -i 25 -k RTR
r -t 1.574576092 -s 8 -d -1 -p message -e 32 -c 2 -a 0 -i 25 -k RTR
r -t 1.574576211 -s 17 -d -1 -p message -e 32 -c 2 -a 0 -i 25 -k RTR
r -t 1.574576264 -s 12 -d -1 -p message -e 32 -c 2 -a 0 -i 25 -k RTR
r -t 1.574576295 -s 5 -d -1 -p message -e 32 -c 2 -a 0 -i 25 -k RTR
r -t 1.574576305 -s 6 -d -1 -p message -e 32 -c 2 -a 0 -i 25 -k RTR
r -t 1.574576334 -s 0 -d -1 -p message -e 32 -c 2 -a 0 -i 25 -k RTR
r -t 1.574576400 -s 16 -d -1 -p message -e 32 -c 2 -a 0 -i 25 -k RTR
r -t 1.574576453 -s 4 -d -1 -p message -e 32 -c 2 -a 0 -i 25 -k RTR
r -t 1.574576472 -s 15 -d -1 -p message -e 32 -c 2 -a 0 -i 25 -k RTR
r -t 1.574576485 -s 7 -d -1 -p message -e 32 -c 2 -a 0 -i 25 -k RTR
r -t 1.574576507 -s 13 -d -1 -p message -e 32 -c 2 -a 0 -i 25 -k RTR
r -t 1.574576509 -s 1 -d -1 -p message -e 32 -c 2 -a 0 -i 25 -k RTR
r -t 1.574576522 -s 2 -d -1 -p message -e 32 -c 2 -a 0 -i 25 -k RTR
r -t 1.574576568 -s 18 -d -1 -p message -e 32 -c 2 -a 0 -i 25 -k RTR
r -t 1.574576584 -s 3 -d -1 -p message -e 32 -c 2 -a 0 -i 25 -k RTR
r -t 1.574576586 -s 14 -d -1 -p message -e 32 -c 2 -a 0 -i 25 -k RTR
r -t 1.574576597 -s 10 -d -1 -p message -e 32 -c 2 -a 0 -i 25 -k RTR
r -t 1.574576677 -s 19 -d -1 -p message -e 32 -c 2 -a 0 -i 25 -k RTR
+ -t 1.734515011 -s 19 -d -1 -p message -e 32 -c 2 -a 0 -i 26 -k RTR 
- -t 1.734515011 -s 19 -d -1 -p message -e 32 -c 2 -a 0 -i 26 -k RTR
h -t 1.734515011 -s 19 -d -1 -p message -e 32 -c 2 -a 0 -i 26 -k RTR
r -t 1.739205093 -s 10 -d -1 -p message -e 32 -c 2 -a 0 -i 26 -k RTR
r -t 1.739205181 -s 13 -d -1 -p message -e 32 -c 2 -a 0 -i 26 -k RTR
r -t 1.739205215 -s 1 -d -1 -p message -e 32 -c 2 -a 0 -i 26 -k RTR
r -t 1.739205283 -s 18 -d -1 -p message -e 32 -c 2 -a 0 -i 26 -k RTR
r -t 1.739205299 -s 15 -d -1 -p message -e 32 -c 2 -a 0 -i 26 -k RTR
r -t 1.739205312 -s 16 -d -1 -p message -e 32 -c 2 -a 0 -i 26 -k RTR
r -t 1.739205414 -s 4 -d -1 -p message -e 32 -c 2 -a 0 -i 26 -k RTR
r -t 1.739205463 -s 3 -d -1 -p message -e 32 -c 2 -a 0 -i 26 -k RTR
r -t 1.739205506 -s 2 -d -1 -p message -e 32 -c 2 -a 0 -i 26 -k RTR
r -t 1.739205506 -s 12 -d -1 -p message -e 32 -c 2 -a 0 -i 26 -k RTR
r -t 1.739205507 -s 17 -d -1 -p message -e 32 -c 2 -a 0 -i 26 -k RTR
r -t 1.739205570 -s 14 -d -1 -p message -e 32 -c 2 -a 0 -i 26 -k RTR
r -t 1.739205584 -s 5 -d -1 -p message -e 32 -c 2 -a 0 -i 26 -k RTR
r -t 1.739205645 -s 0 -d -1 -p message -e 32 -c 2 -a 0 -i 26 -k RTR
r -t 1.739205654 -s 6 -d -1 -p message -e 32 -c 2 -a 0 -i 26 -k RTR
r -t 1.739205676 -s 8 -d -1 -p message -e 32 -c 2 -a 0 -i 26 -k RTR
r -t 1.739205689 -s 11 -d -1 -p message -e 32 -c 2 -a 0 -i 26 -k RTR
r -t 1.739205708 -s 7 -d -1 -p message -e 32 -c 2 -a 0 -i 26 -k RTR
r -t 1.739205711 -s 9 -d -1 -p message -e 32 -c 2 -a 0 -i 26 -k RTR
+ -t 1.760667882 -s 2 -d -1 -p message -e 32 -c 2 -a 0 -i 27 -k RTR 
- -t 1.760667882 -s 2 -d -1 -p message -e 32 -c 2 -a 0 -i 27 -k RTR
h -t 1.760667882 -s 2 -d -1 -p message -e 32 -c 2 -a 0 -i 27 -k RTR
r -t 1.763118002 -s 4 -d -1 -p message -e 32 -c 2 -a 0 -i 27 -k RTR
r -t 1.763118113 -s 15 -d -1 -p message -e 32 -c 2 -a 0 -i 27 -k RTR
r -t 1.763118119 -s 5 -d -1 -p message -e 32 -c 2 -a 0 -i 27 -k RTR
r -t 1.763118176 -s 16 -d -1 -p message -e 32 -c 2 -a 0 -i 27 -k RTR
r -t 1.763118196 -s 1 -d -1 -p message -e 32 -c 2 -a 0 -i 27 -k RTR
r -t 1.763118279 -s 13 -d -1 -p message -e 32 -c 2 -a 0 -i 27 -k RTR
r -t 1.763118347 -s 10 -d -1 -p message -e 32 -c 2 -a 0 -i 27 -k RTR
r -t 1.763118377 -s 19 -d -1 -p message -e 32 -c 2 -a 0 -i 27 -k RTR
r -t 1.763118393 -s 17 -d -1 -p message -e 32 -c 2 -a 0 -i 27 -k RTR
r -t 1.763118428 -s 11 -d -1 -p message -e 32 -c 2 -a 0 -i 27 -k RTR
r -t 1.763118428 -s 9 -d -1 -p message -e 32 -c 2 -a 0 -i 27 -k RTR
r -t 1.763118455 -s 12 -d -1 -p message -e 32 -c 2 -a 0 -i 27 -k RTR
r -t 1.763118481 -s 8 -d -1 -p message -e 32 -c 2 -a 0 -i 27 -k RTR
r -t 1.763118512 -s 18 -d -1 -p message -e 32 -c 2 -a 0 -i 27 -k RTR
r -t 1.763118614 -s 6 -d -1 -p message -e 32 -c 2 -a 0 -i 27 -k RTR
r -t 1.763118626 -s 0 -d -1 -p message -e 32 -c 2 -a 0 -i 27 -k RTR
r -t 1.763118658 -s 3 -d -1 -p message -e 32 -c 2 -a 0 -i 27 -k RTR
+ -t 1.899861277 -s 10 -d -1 -p message -e 32 -c 2 -a 0 -i 28 -k RTR 