s 0.060443930 _6_ RTR  --- 0 message 32 [0 0 0 0] ------- [6:255 -1:255 32 0] 
r 0.063853961 _0_ RTR  --- 0 message 32 [0 ffffffff 6 800] ------- [6:255 -1:255 32 0] 
r 0.063854099 _12_ RTR  --- 0 message 32 [0 ffffffff 6 800] ------- [6:255 -1:255 32 0] 
r 0.063854111 _7_ RTR  --- 0 message 32 [0 ffffffff 6 800] ------- [6:255 -1:255 32 0] 
r 0.063854144 _8_ RTR  --- 0 message 32 [0 ffffffff 6 800] ------- [6:255 -1:255 32 0] 
r 0.063854151 _17_ RTR  --- 0 message 32 [0 ffffffff 6 800] ------- [6:255 -1:255 32 0] 
r 0.063854231 _11_ RTR  --- 0 message 32 [0 ffffffff 6 800] ------- [6:255 -1:255 32 0] 
r 0.063854239 _14_ RTR  --- 0 message 32 [0 ffffffff 6 800] ------- [6:255 -1:255 32 0] 
r 0.063854259 _9_ RTR  --- 0 message 32 [0 ffffffff 6 800] ------- [6:255 -1:255 32 0] 
r 0.063854277 _3_ RTR  --- 0 message 32 [0 ffffffff 6 800] ------- [6:255 -1:255 32 0] 
r 0.063854353 _18_ RTR  --- 0 message 32 [0 ffffffff 6 800] ------- [6:255 -1:255 32 0] 
r 0.063854413 _16_ RTR  --- 0 message 32 [0 ffffffff 6 800] ------- [6:255 -1:255 32 0] 
r 0.063854438 _13_ RTR  --- 0 message 32 [0 ffffffff 6 800] ------- [6:255 -1:255 32 0] 
r 0.063854491 _5_ RTR  --- 0 message 32 [0 ffffffff 6 800] ------- [6:255 -1:255 32 0] 
r 0.063854492 _1_ RTR  --- 0 message 32 [0 ffffffff 6 800] ------- [6:255 -1:255 32 0] 
r 0.063854495 _10_ RTR  --- 0 message 32 [0 ffffffff 6 800] ------- [6:255 -1:255 32 0] 
r 0.063854506 _15_ RTR  --- 0 message 32 [0 ffffffff 6 800] ------- [6:255 -1:255 32 0] 
r 0.063854555 _4_ RTR  --- 0 message 32 [0 ffffffff 6 800] ------- [6:255 -1:255 32 0] 
r 0.063854574 _19_ RTR  --- 0 message 32 [0 ffffffff 6 800] ------- [6:255 -1:255 32 0] 
r 0.063854662 _2_ RTR  --- 0 message 32 [0 ffffffff 6 800] ------- [6:255 -1:255 32 0] 
s 0.101148811 _18_ RTR  --- 1 message 32 [0 0 0 0] ------- [18:255 -1:255 32 0] 
r 0.105198992 _3_ RTR  --- 1 message 32 [0 ffffffff 12 800] ------- [18:255 -1:255 32 0] 
r 0.105199031 _10_ RTR  --- 1 message 32 [0 ffffffff 12 800] ------- [18:255 -1:255 32 0] 
r 0.105199050 _13_ RTR  --- 1 message 32 [0 ffffffff 12 800] ------- [18:255 -1:255 32 0] 
r 0.105199084 _19_ RTR  --- 1 message 32 [0 ffffffff 12 800] ------- [18:255 -1:255 32 0] 
r 0.105199098 _14_ RTR  --- 1 message 32 [0 ffffffff 12 800] ------- [18:255 -1:255 32 0] 
r 0.105199129 _12_ RTR  --- 1 message 32 [0 ffffffff 12 800] ------- [18:255 -1:255 32 0] 
r 0.105199138 _1_ RTR  --- 1 message 32 [0 ffffffff 12 800] ------- [18:255 -1:255 32 0] 
r 0.105199154 _16_ RTR  --- 1 message 32 [0 ffffffff 12 800] ------- [18:255 -1:255 32 0] 
r 0.105199168 _17_ RTR  --- 1 message 32 [0 ffffffff 12 800] ------- [18:255 -1:255 32 0] 
r 0.105199212 _15_ RTR  --- 1 message 32 [0 ffffffff 12 800] ------- [18:255 -1:255 32 0] 
r 0.105199216 _0_ RTR  --- 1 message 32 [0 ffffffff 12 800] ------- [18:255 -1:255 32 0] 
r 0.105199234 _6_ RTR  --- 1 message 32 [0 ffffffff 12 800] ------- [18:255 -1:255 32 0] 
r 0.105199248 _7_ RTR  --- 1 message 32 [0 ffffffff 12 800] ------- [18:255 -1:255 32 0] 
r 0.105199324 _4_ RTR  --- 1 message 32 [0 ffffffff 12 800] ------- [18:255 -1:255 32 0] 
r 0.105199328 _8_ RTR  --- 1 message 32 [0 ffffffff 12 800] ------- [18:255 -1:255 32 0] 
r 0.105199374 _11_ RTR  --- 1 message 32 [0 ffffffff 12 800] ------- [18:255 -1:255 32 0] 
r 0.105199403 _9_ RTR  --- 1 message 32 [0 ffffffff 12 800] ------- [18:255 -1:255 32 0] 
r 0.105199412 _5_ RTR  --- 1 message 32 [0 ffffffff 12 800] ------- [18:255 -1:255 32 0] 
r 0.105199441 _2_ RTR  --- 1 message 32 [0 ffffffff 12 800] ------- [18:255 -1:255 32 0] 
s 0.189994250 _16_ RTR  --- 2 message 32 [0 0 0 0] ------- [16:255 -1:255 32 0] 
r 0.194364343 _15_ RTR  --- 2 message 32 [0 ffffffff 10 800] ------- [16:255 -1:255 32 0] 
r 0.194364360 _1_ RTR  --- 2 message 32 [0 ffffffff 10 800] ------- [16:255 -1:255 32 0] 
r 0.194364390 _13_ RTR  --- 2 message 32 [0 ffffffff 10 800] ------- [16:255 -1:255 32 0] 
r 0.194364424 _4_ RTR  --- 2 message 32 [0 ffffffff 10 800] ------- [16:255 -1:255 32 0] 
r 0.194364484 _10_ RTR  --- 2 message 32 [0 ffffffff 10 800] ------- [16:255 -1:255 32 0] 
r 0.194364523 _17_ RTR  --- 2 message 32 [0 ffffffff 10 800] ------- [16:255 -1:255 32 0] 
r 0.194364529 _5_ RTR  --- 2 message 32 [0 ffffffff 10 800] ------- [16:255 -1:255 32 0] 
r 0.194364544 _2_ RTR  --- 2 message 32 [0 ffffffff 10 800] ------- [16:255 -1:255 32 0] 
r 0.194364551 _19_ RTR  --- 2 message 32 [0 ffffffff 10 800] ------- [16:255 -1:255 32 0] 
r 0.194364564 _12_ RTR  --- 2 message 32 [0 ffffffff 10 800] ------- [16:255 -1:255 32 0] 
r 0.194364593 _18_ RTR  --- 2 message 32 [0 ffffffff 10 800] ------- [16:255 -1:255 32 0] 
r 0.194364657 _11_ RTR  --- 2 message 32 [0 ffffffff 10 800] ------- [16:255 -1:255 32 0] 
r 0.194364669 _8_ RTR  --- 2 message 32 [0 ffffffff 10 800] ------- [16:255 -1:255 32 0] 
r 0.194364673 _9_ RTR  --- 2 message 32 [0 ffffffff 10 800] ------- [16:255 -1:255 32 0] 
r 0.194364732 _3_ RTR  --- 2 message 32 [0 ffffffff 10 800] ------- [16:255 -1:255 32 0] 
r 0.194364733 _6_ RTR  --- 2 message 32 [0 ffffffff 10 800] ------- [16:255 -1:255 32 0] 
r 0.194364738 _0_ RTR  --- 2 message 32 [0 ffffffff 10 800] ------- [16:255 -1:255 32 0] 
r 0.194364808 _14_ RTR  --- 2 message 32 [0 ffffffff 10 800] ------- [16:255 -1:255 32 0] 
r 0.194364857 _7_ RTR  --- 2 message 32 [0 ffffffff 10 800] ------- [16:255 -1:255 32 0] 
s 0.364814105 _14_ RTR  --- 3 message 32 [0 0 0 0] ------- [14:255 -1:255 32 0] 
r 0.368224214 _3_ RTR  --- 3 message 32 [0 ffffffff e 800] ------- [14:255 -1:255 32 0] 
r 0.368224310 _7_ RTR  --- 3 message 32 [0 ffffffff e 800] ------- [14:255 -1:255 32 0] 
r 0.368224384 _0_ RTR  --- 3 message 32 [0 ffffffff e 800] ------- [14:255 -1:255 32 0] 
r 0.368224392 _18_ RTR  --- 3 message 32 [0 ffffffff e 800] ------- [14:255 -1:255 32 0] 
r 0.368224414 _6_ RTR  --- 3 message 32 [0 ffffffff e 800] ------- [14:255 -1:255 32 0] 
r 0.368224444 _12_ RTR  --- 3 message 32 [0 ffffffff e 800] ------- [14:255 -1:255 32 0] 
r 0.368224516 _17_ RTR  --- 3 message 32 [0 ffffffff e 800] ------- [14:255 -1:255 32 0] 
r 0.368224604 _13_ RTR  --- 3 message 32 [0 ffffffff e 800] ------- [14:255 -1:255 32 0] 
r 0.368224606 _8_ RTR  --- 3 message 32 [0 ffffffff e 800] ------- [14:255 -1:255 32 0] 
r 0.368224608 _10_ RTR  --- 3 message 32 [0 ffffffff e 800] ------- [14:255 -1:255 32 0] 
r 0.368224663 _16_ RTR  --- 3 message 32 [0 ffffffff e 800] ------- [14:255 -1:255 32 0] 
r 0.368224664 _19_ RTR  --- 3 message 32 [0 ffffffff e 800] ------- [14:255 -1:255 32 0] 
r 0.368224685 _11_ RTR  --- 3 message 32 [0 ffffffff e 800] ------- [14:255 -1:255 32 0] 
r 0.368224688 _1_ RTR  --- 3 message 32 [0 ffffffff e 800] ------- [14:255 -1:255 32 0] 
r 0.368224715 _9_ RTR  --- 3 message 32 [0 ffffffff e 800] ------- [14:255 -1:255 32 0] 
r 0.368224743 _15_ RTR  --- 3 message 32 [0 ffffffff e 800] ------- [14:255 -1:255 32 0] 
r 0.368224836 _4_ RTR  --- 3 message 32 [0 ffffffff e 800] ------- [14:255 -1:255 32 0] 
r 0.368224857 _5_ RTR  --- 3 message 32 [0 ffffffff e 800] ------- [14:255 -1:255 32 0] 
s 0.378012593 _8_ RTR  --- 4 message 32 [0 0 0 0] ------- [8:255 -1:255 32 0] 
r 0.380782681 _11_ RTR  --- 4 message 32 [0 ffffffff 8 800] ------- [8:255 -1:255 32 0] 
r 0.380782709 _9_ RTR  --- 4 message 32 [0 ffffffff 8 800] ------- [8:255 -1:255 32 0] 
r 0.380782763 _17_ RTR  --- 4 message 32 [0 ffffffff 8 800] ------- [8:255 -1:255 32 0] 
r 0.380782792 _12_ RTR  --- 4 message 32 [0 ffffffff 8 800] ------- [8:255 -1:255 32 0] 
r 0.380782806 _6_ RTR  --- 4 message 32 [0 ffffffff 8 800] ------- [8:255 -1:255 32 0] 
r 0.380782835 _0_ RTR  --- 4 message 32 [0 ffffffff 8 800] ------- [8:255 -1:255 32 0] 
r 0.380782984 _5_ RTR  --- 4 message 32 [0 ffffffff 8 800] ------- [8:255 -1:255 32 0] 
r 0.380782986 _7_ RTR  --- 4 message 32 [0 ffffffff 8 800] ------- [8:255 -1:255 32 0] 
r 0.380783012 _16_ RTR  --- 4 message 32 [0 ffffffff 8 800] ------- [8:255 -1:255 32 0] 
r 0.380783094 _14_ RTR  --- 4 message 32 [0 ffffffff 8 800] ------- [8:255 -1:255 32 0] 
r 0.380783094 _13_ RTR  --- 4 message 32 [0 ffffffff 8 800] ------- [8:255 -1:255 32 0] 
r 0.380783096 _15_ RTR  --- 4 message 32 [0 ffffffff 8 800] ------- [8:255 -1:255 32 0] 
r 0.380783101 _3_ RTR  --- 4 message 32 [0 ffffffff 8 800] ------- [8:255 -1:255 32 0] 
r 0.380783105 _4_ RTR  --- 4 message 32 [0 ffffffff 8 800] ------- [8:255 -1:255 32 0] 
r 0.380783109 _18_ RTR  --- 4 message 32 [0 ffffffff 8 800] ------- [8:255 -1:255 32 0] 
r 0.380783115 _1_ RTR  --- 4 message 32 [0 ffffffff 8 800] ------- [8:255 -1:255 32 0] 
r 0.380783176 _10_ RTR  --- 4 message 32 [0 ffffffff 8 800] ------- [8:255 -1:255 32 0] 
r 0.380783192 _2_ RTR  --- 4 message 32 [0 ffffffff 8 800] ------- [8:255 -1:255 32 0] 
r 0.380783258 _19_ RTR  --- 4 message 32 [0 ffffffff 8 800] ------- [8:255 -1:255 32 0] 
s 0.420103316 _12_ RTR  --- 5 message 32 [0 0 0 0] ------- [12:255 -1:255 32 0] 
r 0.423513390 _17_ RTR  --- 5 message 32 [0 ffffffff c 800] ------- [12:255 -1:255 32 0] 
r 0.423513485 _6_ RTR  --- 5 message 32 [0 ffffffff c 800] ------- [12:255 -1:255 32 0] 
r 0.423513490 _0_ RTR  --- 5 message 32 [0 ffffffff c 800] ------- [12:255 -1:255 32 0] 
r 0.423513515 _8_ RTR  --- 5 message 32 [0 ffffffff c 800] ------- [12:255 -1:255 32 0] 
r 0.423513573 _11_ RTR  --- 5 message 32 [0 ffffffff c 800] ------- [12:255 -1:255 32 0] 
r 0.423513604 _9_ RTR  --- 5 message 32 [0 ffffffff c 800] ------- [12:255 -1:255 32 0] 
r 0.423513625 _7_ RTR  --- 5 message 32 [0 ffffffff c 800] ------- [12:255 -1:255 32 0] 
r 0.423513630 _16_ RTR  --- 5 message 32 [0 ffffffff c 800] ------- [12:255 -1:255 32 0] 
r 0.423513634 _18_ RTR  --- 5 message 32 [0 ffffffff c 800] ------- [12:255 -1:255 32 0] 
r 0.423513637 _3_ RTR  --- 5 message 32 [0 ffffffff c 800] ------- [12:255 -1:255 32 0] 
r 0.423513655 _14_ RTR  --- 5 message 32 [0 ffffffff c 800] ------- [12:255 -1:255 32 0] 
r 0.423513663 _13_ RTR  --- 5 message 32 [0 ffffffff c 800] ------- [12:255 -1:255 32 0] 
r 0.423513711 _1_ RTR  --- 5 message 32 [0 ffffffff c 800] ------- [12:255 -1:255 32 0] 
r 0.423513723 _15_ RTR  --- 5 message 32 [0 ffffffff c 800] ------- [12:255 -1:255 32 0] 
r 0.423513730 _10_ RTR  --- 5 message 32 [0 ffffffff c 800] ------- [12:255 -1:255 32 0] 
r 0.423513742 _5_ RTR  --- 5 message 32 [0 ffffffff c 800] ------- [12:255 -1:255 32 0] 
r 0.423513777 _4_ RTR  --- 5 message 32 [0 ffffffff c 800] ------- [12:255 -1:255 32 0] 
r 0.423513812 _19_ RTR  --- 5 message 32 [0 ffffffff c 800] ------- [12:255 -1:255 32 0] 
r 0.423513888 _2_ RTR  --- 5 message 32 [0 ffffffff c 800] ------- [12:255 -1:255 32 0] 
s 0.529109525 _3_ RTR  --- 6 message 32 [0 0 0 0] ------- [3:255 -1:255 32 0] 
r 0.532519634 _14_ RTR  --- 6 message 32 [0 ffffffff 3 800] ------- [3:255 -1:255 32 0] 
r 0.532519705 _18_ RTR  --- 6 message 32 [0 ffffffff 3 800] ------- [3:255 -1:255 32 0] 
r 0.532519818 _7_ RTR  --- 6 message 32 [0 ffffffff 3 800] ------- [3:255 -1:255 32 0] 
r 0.532519845 _0_ RTR  --- 6 message 32 [0 ffffffff 3 800] ------- [3:255 -1:255 32 0] 
r 0.532519846 _12_ RTR  --- 6 message 32 [0 ffffffff 3 800] ------- [3:255 -1:255 32 0] 
r 0.532519872 _6_ RTR  --- 6 message 32 [0 ffffffff 3 800] ------- [3:255 -1:255 32 0] 
r 0.532519911 _17_ RTR  --- 6 message 32 [0 ffffffff 3 800] ------- [3:255 -1:255 32 0] 
r 0.532519924 _10_ RTR  --- 6 message 32 [0 ffffffff 3 800] ------- [3:255 -1:255 32 0] 
r 0.532519930 _13_ RTR  --- 6 message 32 [0 ffffffff 3 800] ------- [3:255 -1:255 32 0] 
r 0.532519976 _19_ RTR  --- 6 message 32 [0 ffffffff 3 800] ------- [3:255 -1:255 32 0] 
r 0.532520006 _16_ RTR  --- 6 message 32 [0 ffffffff 3 800] ------- [3:255 -1:255 32 0] 
r 0.532520016 _1_ RTR  --- 6 message 32 [0 ffffffff 3 800] ------- [3:255 -1:255 32 0] 
r 0.532520033 _8_ RTR  --- 6 message 32 [0 ffffffff 3 800] ------- [3:255 -1:255 32 0] 
r 0.532520079 _15_ RTR  --- 6 message 32 [0 ffffffff 3 800] ------- [3:255 -1:255 32 0] 
r 0.532520101 _11_ RTR  --- 6 message 32 [0 ffffffff 3 800] ------- [3:255 -1:255 32 0] 
r 0.532520132 _9_ RTR  --- 6 message 32 [0 ffffffff 3 800] ------- [3:255 -1:255 32 0] 
r 0.532520181 _4_ RTR  --- 6 message 32 [0 ffffffff 3 800] ------- [3:255 -1:255 32 0] 
r 0.532520227 _5_ RTR  --- 6 message 32 [0 ffffffff 3 800] ------- [3:255 -1:255 32 0] 
r 0.532520300 _2_ RTR  --- 6 message 32 [0 ffffffff 3 800] ------- [3:255 -1:255 32 0] 
s 0.655468297 _7_ RTR  --- 7 message 32 [0 0 0 0] ------- [7:255 -1:255 32 0] 
r 0.658238451 _0_ RTR  --- 7 message 32 [0 ffffffff 7 800] ------- [7:255 -1:255 32 0] 
r 0.658238478 _6_ RTR  --- 7 message 32 [0 ffffffff 7 800] ------- [7:255 -1:255 32 0] 
r 0.658238503 _14_ RTR  --- 7 message 32 [0 ffffffff 7 800] ------- [7:255 -1:255 32 0] 
r 0.658238590 _3_ RTR  --- 7 message 32 [0 ffffffff 7 800] ------- [7:255 -1:255 32 0] 
r 0.658238606 _12_ RTR  --- 7 message 32 [0 ffffffff 7 800] ------- [7:255 -1:255 32 0] 
r 0.658238675 _17_ RTR  --- 7 message 32 [0 ffffffff 7 800] ------- [7:255 -1:255 32 0] 
r 0.658238690 _8_ RTR  --- 7 message 32 [0 ffffffff 7 800] ------- [7:255 -1:255 32 0] 
r 0.658238734 _18_ RTR  --- 7 message 32 [0 ffffffff 7 800] ------- [7:255 -1:255 32 0] 
r 0.658238778 _11_ RTR  --- 7 message 32 [0 ffffffff 7 800] ------- [7:255 -1:255 32 0] 
r 0.658238806 _9_ RTR  --- 7 message 32 [0 ffffffff 7 800] ------- [7:255 -1:255 32 0] 
r 0.658238892 _13_ RTR  --- 7 message 32 [0 ffffffff 7 800] ------- [7:255 -1:255 32 0] 
r 0.658238905 _16_ RTR  --- 7 message 32 [0 ffffffff 7 800] ------- [7:255 -1:255 32 0] 
r 0.658238925 _10_ RTR  --- 7 message 32 [0 ffffffff 7 800] ------- [7:255 -1:255 32 0] 
r 0.658238962 _1_ RTR  --- 7 message 32 [0 ffffffff 7 800] ------- [7:255 -1:255 32 0] 
r 0.658238995 _19_ RTR  --- 7 message 32 [0 ffffffff 7 800] ------- [7:255 -1:255 32 0] 
r 0.658238996 _15_ RTR  --- 7 message 32 [0 ffffffff 7 800] ------- [7:255 -1:255 32 0] 
r 0.658239027 _5_ RTR  --- 7 message 32 [0 ffffffff 7 800] ------- [7:255 -1:255 32 0] 
r 0.658239064 _4_ RTR  --- 7 message 32 [0 ffffffff 7 800] ------- [7:255 -1:255 32 0] 
s 0.860493949 _5_ RTR  --- 8 message 32 [0 0 0 0] ------- [5:255 -1:255 32 0] 
r 0.863264157 _4_ RTR  --- 8 message 32 [0 ffffffff 5 800] ------- [5:255 -1:255 32 0] 
r 0.863264185 _2_ RTR  --- 8 message 32 [0 ffffffff 5 800] ------- [5:255 -1:255 32 0] 
r 0.863264228 _16_ RTR  --- 8 message 32 [0 ffffffff 5 800] ------- [5:255 -1:255 32 0] 
r 0.863264241 _15_ RTR  --- 8 message 32 [0 ffffffff 5 800] ------- [5:255 -1:255 32 0] 
r 0.863264267 _9_ RTR  --- 8 message 32 [0 ffffffff 5 800] ------- [5:255 -1:255 32 0] 
r 0.863264272 _11_ RTR  --- 8 message 32 [0 ffffffff 5 800] ------- [5:255 -1:255 32 0] 
r 0.863264302 _17_ RTR  --- 8 message 32 [0 ffffffff 5 800] ------- [5:255 -1:255 32 0] 
r 0.863264318 _1_ RTR  --- 8 message 32 [0 ffffffff 5 800] ------- [5:255 -1:255 32 0] 
r 0.863264340 _8_ RTR  --- 8 message 32 [0 ffffffff 5 800] ------- [5:255 -1:255 32 0] 
r 0.863264368 _13_ RTR  --- 8 message 32 [0 ffffffff 5 800] ------- [5:255 -1:255 32 0] 
r 0.863264375 _12_ RTR  --- 8 message 32 [0 ffffffff 5 800] ------- [5:255 -1:255 32 0] 
r 0.863264461 _10_ RTR  --- 8 message 32 [0 ffffffff 5 800] ------- [5:255 -1:255 32 0] 
r 0.863264509 _6_ RTR  --- 8 message 32 [0 ffffffff 5 800] ------- [5:255 -1:255 32 0] 
r 0.863264522 _19_ RTR  --- 8 message 32 [0 ffffffff 5 800] ------- [5:255 -1:255 32 0] 
r 0.863264529 _0_ RTR  --- 8 message 32 [0 ffffffff 5 800] ------- [5:255 -1:255 32 0] 
r 0.863264549 _18_ RTR  --- 8 message 32 [0 ffffffff 5 800] ------- [5:255 -1:255 32 0] 
r 0.863264651 _3_ RTR  --- 8 message 32 [0 ffffffff 5 800] ------- [5:255 -1:255 32 0] 
r 0.863264678 _7_ RTR  --- 8 message 32 [0 ffffffff 5 800] ------- [5:255 -1:255 32 0] 
r 0.863264700 _14_ RTR  --- 8 message 32 [0 ffffffff 5 800] ------- [5:255 -1:255 32 0] 
s 0.986493297 _17_ RTR  --- 9 message 32 [0 0 0 0] ------- [17:255 -1:255 32 0] 
r 0.989583371 _12_ RTR  --- 9 message 32 [0 ffffffff 11 800] ------- [17:255 -1:255 32 0] 
r 0.989583467 _8_ RTR  --- 9 message 32 [0 ffffffff 11 800] ------- [17:255 -1:255 32 0] 
r 0.989583503 _11_ RTR  --- 9 message 32 [0 ffffffff 11 800] ------- [17:255 -1:255 32 0] 
r 0.989583518 _6_ RTR  --- 9 message 32 [0 ffffffff 11 800] ------- [17:255 -1:255 32 0] 
r 0.989583531 _0_ RTR  --- 9 message 32 [0 ffffffff 11 800] ------- [17:255 -1:255 32 0] 
r 0.989583532 _9_ RTR  --- 9 message 32 [0 ffffffff 11 800] ------- [17:255 -1:255 32 0] 
r 0.989583570 _16_ RTR  --- 9 message 32 [0 ffffffff 11 800] ------- [17:255 -1:255 32 0] 
r 0.989583631 _13_ RTR  --- 9 message 32 [0 ffffffff 11 800] ------- [17:255 -1:255 32 0] 
r 0.989583651 _5_ RTR  --- 9 message 32 [0 ffffffff 11 800] ------- [17:255 -1:255 32 0] 
r 0.989583654 _18_ RTR  --- 9 message 32 [0 ffffffff 11 800] ------- [17:255 -1:255 32 0] 
r 0.989583662 _15_ RTR  --- 9 message 32 [0 ffffffff 11 800] ------- [17:255 -1:255 32 0] 
r 0.989583664 _1_ RTR  --- 9 message 32 [0 ffffffff 11 800] ------- [17:255 -1:255 32 0] 
r 0.989583674 _7_ RTR  --- 9 message 32 [0 ffffffff 11 800] ------- [17:255 -1:255 32 0] 
r 0.989583683 _3_ RTR  --- 9 message 32 [0 ffffffff 11 800] ------- [17:255 -1:255 32 0] 
r 0.989583701 _4_ RTR  --- 9 message 32 [0 ffffffff 11 800] ------- [17:255 -1:255 32 0] 
r 0.989583708 _14_ RTR  --- 9 message 32 [0 ffffffff 11 800] ------- [17:255 -1:255 32 0] 
r 0.989583710 _10_ RTR  --- 9 message 32 [0 ffffffff 11 800] ------- [17:255 -1:255 32 0] 
r 0.989583793 _19_ RTR  --- 9 message 32 [0 ffffffff 11 800] ------- [17:255 -1:255 32 0] 
r 0.989583807 _2_ RTR  --- 9 message 32 [0 ffffffff 11 800] ------- [17:255 -1:255 32 0] 
s 1.000000000 _16_ AGT  --- 10 tcp 40 [0 0 0 0] ------- [16:0 10:0 32 0] [0 0] 0 0
r 1.000000000 _16_ RTR  --- 10 tcp 40 [0 0 0 0] ------- [16:0 10:0 32 0] [0 0] 0 0
s 1.000000000 _14_ AGT  --- 11 tcp 40 [0 0 0 0] ------- [14:0 10:1 32 0] [0 0] 0 0
r 1.000000000 _14_ RTR  --- 11 tcp 40 [0 0 0 0] ------- [14:0 10:1 32 0] [0 0] 0 0
s 1.000000000 _14_ AGT  --- 12 tcp 40 [0 0 0 0] ------- [14:1 10:2 32 0] [0 0] 0 0
r 1.000000000 _14_ RTR  --- 12 tcp 40 [0 0 0 0] ------- [14:1 10:2 32 0] [0 0] 0 0
s 1.000000000 _12_ AGT  --- 13 tcp 40 [0 0 0 0] ------- [12:0 10:3 32 0] [0 0] 0 0
r 1.000000000 _12_ RTR  --- 13 tcp 40 [0 0 0 0] ------- [12:0 10:3 32 0] [0 0] 0 0
s 1.000000000 _12_ AGT  --- 14 tcp 40 [0 0 0 0] ------- [12:1 10:4 32 0] [0 0] 0 0
r 1.000000000 _12_ RTR  --- 14 tcp 40 [0 0 0 0] ------- [12:1 10:4 32 0] [0 0] 0 0
s 1.000000000 _12_ AGT  --- 15 tcp 40 [0 0 0 0] ------- [12:2 10:5 32 0] [0 0] 0 0
r 1.000000000 _12_ RTR  --- 15 tcp 40 [0 0 0 0] ------- [12:2 10:5 32 0] [0 0] 0 0
s 1.000000000 _18_ AGT  --- 16 tcp 40 [0 0 0 0] ------- [18:0 10:6 32 0] [0 0] 0 0
r 1.000000000 _18_ RTR  --- 16 tcp 40 [0 0 0 0] ------- [18:0 10:6 32 0] [0 0] 0 0
s 1.000000000 _15_ AGT  --- 17 tcp 40 [0 0 0 0] ------- [15:0 10:7 32 0] [0 0] 0 0
r 1.000000000 _15_ RTR  --- 17 tcp 40 [0 0 0 0] ------- [15:0 10:7 32 0] [0 0] 0 0
s 1.000000000 _14_ AGT  --- 18 tcp 40 [0 0 0 0] ------- [14:2 10:8 32 0] [0 0] 0 0
r 1.000000000 _14_ RTR  --- 18 tcp 40 [0 0 0 0] ------- [14:2 10:8 32 0] [0 0] 0 0
s 1.000000000 _12_ AGT  --- 19 tcp 40 [0 0 0 0] ------- [12:3 10:9 32 0] [0 0] 0 0
r 1.000000000 _12_ RTR  --- 19 tcp 40 [0 0 0 0] ------- [12:3 10:9 32 0] [0 0] 0 0
s 1.098456509 _1_ RTR  --- 20 message 32 [0 0 0 0] ------- [1:255 -1:255 32 0] 
r 1.101866596 _15_ RTR  --- 20 message 32 [0 ffffffff 1 800] ------- [1:255 -1:255 32 0] 
r 1.101866597 _13_ RTR  --- 20 message 32 [0 ffffffff 1 800] ------- [1:255 -1:255 32 0] 
r 1.101866619 _16_ RTR  --- 20 message 32 [0 ffffffff 1 800] ------- [1:255 -1:255 32 0] 
r 1.101866663 _10_ RTR  --- 20 message 32 [0 ffffffff 1 800] ------- [1:255 -1:255 32 0] 
r 1.101866713 _19_ RTR  --- 20 message 32 [0 ffffffff 1 800] ------- [1:255 -1:255 32 0] 
r 1.101866716 _4_ RTR  --- 20 message 32 [0 ffffffff 1 800] ------- [1:255 -1:255 32 0] 
r 1.101866822 _2_ RTR  --- 20 message 32 [0 ffffffff 1 800] ------- [1:255 -1:255 32 0] 
r 1.101866836 _18_ RTR  --- 20 message 32 [0 ffffffff 1 800] ------- [1:255 -1:255 32 0] 
r 1.101866876 _17_ RTR  --- 20 message 32 [0 ffffffff 1 800] ------- [1:255 -1:255 32 0] 
r 1.101866878 _5_ RTR  --- 20 message 32 [0 ffffffff 1 800] ------- [1:255 -1:255 32 0] 
r 1.101866903 _12_ RTR  --- 20 message 32 [0 ffffffff 1 800] ------- [1:255 -1:255 32 0] 
r 1.101867000 _3_ RTR  --- 20 message 32 [0 ffffffff 1 800] ------- [1:255 -1:255 32 0] 
r 1.101867025 _11_ RTR  --- 20 message 32 [0 ffffffff 1 800] ------- [1:255 -1:255 32 0] 
r 1.101867031 _8_ RTR  --- 20 message 32 [0 ffffffff 1 800] ------- [1:255 -1:255 32 0] 
r 1.101867042 _9_ RTR  --- 20 message 32 [0 ffffffff 1 800] ------- [1:255 -1:255 32 0] 
r 1.101867070 _6_ RTR  --- 20 message 32 [0 ffffffff 1 800] ------- [1:255 -1:255 32 0] 
r 1.101867071 _0_ RTR  --- 20 message 32 [0 ffffffff 1 800] ------- [1:255 -1:255 32 0] 
r 1.101867091 _14_ RTR  --- 20 message 32 [0 ffffffff 1 800] ------- [1:255 -1:255 32 0] 
r 1.101867174 _7_ RTR  --- 20 message 32 [0 ffffffff 1 800] ------- [1:255 -1:255 32 0] 
s 1.111391537 _4_ RTR  --- 21 message 32 [0 0 0 0] ------- [4:255 -1:255 32 0] 
r 1.116081657 _2_ RTR  --- 21 message 32 [0 ffffffff 4 800] ------- [4:255 -1:255 32 0] 
r 1.116081657 _15_ RTR  --- 21 message 32 [0 ffffffff 4 800] ------- [4:255 -1:255 32 0] 
r 1.116081712 _16_ RTR  --- 21 message 32 [0 ffffffff 4 800] ------- [4:255 -1:255 32 0] 
r 1.116081744 _1_ RTR  --- 21 message 32 [0 ffffffff 4 800] ------- [4:255 -1:255 32 0] 
r 1.116081745 _5_ RTR  --- 21 message 32 [0 ffffffff 4 800] ------- [4:255 -1:255 32 0] 
r 1.116081822 _13_ RTR  --- 21 message 32 [0 ffffffff 4 800] ------- [4:255 -1:255 32 0] 
r 1.116081898 _10_ RTR  --- 21 message 32 [0 ffffffff 4 800] ------- [4:255 -1:255 32 0] 
r 1.116081941 _19_ RTR  --- 21 message 32 [0 ffffffff 4 800] ------- [4:255 -1:255 32 0] 
r 1.116081942 _17_ RTR  --- 21 message 32 [0 ffffffff 4 800] ------- [4:255 -1:255 32 0] 
r 1.116081999 _12_ RTR  --- 21 message 32 [0 ffffffff 4 800] ------- [4:255 -1:255 32 0] 
r 1.116082008 _11_ RTR  --- 21 message 32 [0 ffffffff 4 800] ------- [4:255 -1:255 32 0] 
r 1.116082014 _9_ RTR  --- 21 message 32 [0 ffffffff 4 800] ------- [4:255 -1:255 32 0] 
r 1.116082049 _8_ RTR  --- 21 message 32 [0 ffffffff 4 800] ------- [4:255 -1:255 32 0] 
r 1.116082050 _18_ RTR  --- 21 message 32 [0 ffffffff 4 800] ------- [4:255 -1:255 32 0] 
r 1.116082162 _6_ RTR  --- 21 message 32 [0 ffffffff 4 800] ------- [4:255 -1:255 32 0] 
r 1.116082172 _0_ RTR  --- 21 message 32 [0 ffffffff 4 800] ------- [4:255 -1:255 32 0] 
r 1.116082193 _3_ RTR  --- 21 message 32 [0 ffffffff 4 800] ------- [4:255 -1:255 32 0] 
r 1.116082269 _14_ RTR  --- 21 message 32 [0 ffffffff 4 800] ------- [4:255 -1:255 32 0] 
r 1.116082304 _7_ RTR  --- 21 message 32 [0 ffffffff 4 800] ------- [4:255 -1:255 32 0] 
s 1.396028090 _13_ RTR  --- 22 message 32 [0 0 0 0] ------- [13:255 -1:255 32 0] 
r 1.398478178 _1_ RTR  --- 22 message 32 [0 ffffffff d 800] ------- [13:255 -1:255 32 0] 
r 1.398478185 _10_ RTR  --- 22 message 32 [0 ffffffff d 800] ------- [13:255 -1:255 32 0] 
r 1.398478230 _16_ RTR  --- 22 message 32 [0 ffffffff d 800] ------- [13:255 -1:255 32 0] 
r 1.398478256 _15_ RTR  --- 22 message 32 [0 ffffffff d 800] ------- [13:255 -1:255 32 0] 
r 1.398478260 _19_ RTR  --- 22 message 32 [0 ffffffff d 800] ------- [13:255 -1:255 32 0] 
r 1.398478329 _18_ RTR  --- 22 message 32 [0 ffffffff d 800] ------- [13:255 -1:255 32 0] 
r 1.398478374 _4_ RTR  --- 22 message 32 [0 ffffffff d 800] ------- [13:255 -1:255 32 0] 
r 1.398478424 _17_ RTR  --- 22 message 32 [0 ffffffff d 800] ------- [13:255 -1:255 32 0] 
r 1.398478437 _12_ RTR  --- 22 message 32 [0 ffffffff d 800] ------- [13:255 -1:255 32 0] 
r 1.398478487 _2_ RTR  --- 22 message 32 [0 ffffffff d 800] ------- [13:255 -1:255 32 0] 
r 1.398478495 _3_ RTR  --- 22 message 32 [0 ffffffff d 800] ------- [13:255 -1:255 32 0] 
r 1.398478509 _5_ RTR  --- 22 message 32 [0 ffffffff d 800] ------- [13:255 -1:255 32 0] 
r 1.398478589 _14_ RTR  --- 22 message 32 [0 ffffffff d 800] ------- [13:255 -1:255 32 0] 
r 1.398478590 _8_ RTR  --- 22 message 32 [0 ffffffff d 800] ------- [13:255 -1:255 32 0] 
r 1.398478594 _0_ RTR  --- 22 message 32 [0 ffffffff d 800] ------- [13:255 -1:255 32 0] 
r 1.398478598 _6_ RTR  --- 22 message 32 [0 ffffffff d 800] ------- [13:255 -1:255 32 0] 
r 1.398478599 _11_ RTR  --- 22 message 32 [0 ffffffff d 800] ------- [13:255 -1:255 32 0] 
r 1.398478620 _9_ RTR  --- 22 message 32 [0 ffffffff d 800] ------- [13:255 -1:255 32 0] 
r 1.398478684 _7_ RTR  --- 22 message 32 [0 ffffffff d 800] ------- [13:255 -1:255 32 0] 
s 1.401859067 _0_ RTR  --- 23 message 32 [0 0 0 0] ------- [0:255 -1:255 32 0] 
r 1.405589098 _6_ RTR  --- 23 message 32 [0 ffffffff 0 800] ------- [0:255 -1:255 32 0] 
r 1.405589222 _7_ RTR  --- 23 message 32 [0 ffffffff 0 800] ------- [0:255 -1:255 32 0] 
r 1.405589242 _12_ RTR  --- 23 message 32 [0 ffffffff 0 800] ------- [0:255 -1:255 32 0] 
r 1.405589301 _17_ RTR  --- 23 message 32 [0 ffffffff 0 800] ------- [0:255 -1:255 32 0] 
r 1.405589309 _8_ RTR  --- 23 message 32 [0 ffffffff 0 800] ------- [0:255 -1:255 32 0] 
r 1.405589346 _14_ RTR  --- 23 message 32 [0 ffffffff 0 800] ------- [0:255 -1:255 32 0] 
r 1.405589388 _3_ RTR  --- 23 message 32 [0 ffffffff 0 800] ------- [0:255 -1:255 32 0] 
r 1.405589396 _11_ RTR  --- 23 message 32 [0 ffffffff 0 800] ------- [0:255 -1:255 32 0] 
r 1.405589425 _9_ RTR  --- 23 message 32 [0 ffffffff 0 800] ------- [0:255 -1:255 32 0] 
r 1.405589472 _18_ RTR  --- 23 message 32 [0 ffffffff 0 800] ------- [0:255 -1:255 32 0] 
r 1.405589556 _16_ RTR  --- 23 message 32 [0 ffffffff 0 800] ------- [0:255 -1:255 32 0] 
r 1.405589572 _13_ RTR  --- 23 message 32 [0 ffffffff 0 800] ------- [0:255 -1:255 32 0] 
r 1.405589624 _10_ RTR  --- 23 message 32 [0 ffffffff 0 800] ------- [0:255 -1:255 32 0] 
r 1.405589629 _1_ RTR  --- 23 message 32 [0 ffffffff 0 800] ------- [0:255 -1:255 32 0] 
r 1.405589648 _5_ RTR  --- 23 message 32 [0 ffffffff 0 800] ------- [0:255 -1:255 32 0] 
r 1.405589648 _15_ RTR  --- 23 message 32 [0 ffffffff 0 800] ------- [0:255 -1:255 32 0] 
r 1.405589702 _19_ RTR  --- 23 message 32 [0 ffffffff 0 800] ------- [0:255 -1:255 32 0] 
r 1.405589703 _4_ RTR  --- 23 message 32 [0 ffffffff 0 800] ------- [0:255 -1:255 32 0] 
r 1.405589812 _2_ RTR  --- 23 message 32 [0 ffffffff 0 800] ------- [0:255 -1:255 32 0] 
s 1.549790618 _11_ RTR  --- 24 message 32 [0 0 0 0] ------- [11:255 -1:255 32 0] 
r 1.554480649 _9_ RTR  --- 24 message 32 [0 ffffffff b 800] ------- [11:255 -1:255 32 0] 
r 1.554480707 _8_ RTR  --- 24 message 32 [0 ffffffff b 800] ------- [11:255 -1:255 32 0] 
r 1.554480825 _17_ RTR  --- 24 message 32 [0 ffffffff b 800] ------- [11:255 -1:255 32 0] 
r 1.554480876 _12_ RTR  --- 24 message 32 [0 ffffffff b 800] ------- [11:255 -1:255 32 0] 
r 1.554480919 _6_ RTR  --- 24 message 32 [0 ffffffff b 800] ------- [11:255 -1:255 32 0] 
r 1.554480942 _5_ RTR  --- 24 message 32 [0 ffffffff b 800] ------- [11:255 -1:255 32 0] 
r 1.554480947 _0_ RTR  --- 24 message 32 [0 ffffffff b 800] ------- [11:255 -1:255 32 0] 
r 1.554481025 _16_ RTR  --- 24 message 32 [0 ffffffff b 800] ------- [11:255 -1:255 32 0] 
r 1.554481089 _4_ RTR  --- 24 message 32 [0 ffffffff b 800] ------- [11:255 -1:255 32 0] 
r 1.554481099 _7_ RTR  --- 24 message 32 [0 ffffffff b 800] ------- [11:255 -1:255 32 0] 
r 1.554481101 _15_ RTR  --- 24 message 32 [0 ffffffff b 800] ------- [11:255 -1:255 32 0] 
r 1.554481128 _13_ RTR  --- 24 message 32 [0 ffffffff b 800] ------- [11:255 -1:255 32 0] 
r 1.554481134 _1_ RTR  --- 24 message 32 [0 ffffffff b 800] ------- [11:255 -1:255 32 0] 
r 1.554481164 _2_ RTR  --- 24 message 32 [0 ffffffff b 800] ------- [11:255 -1:255 32 0] 
r 1.554481181 _18_ RTR  --- 24 message 32 [0 ffffffff b 800] ------- [11:255 -1:255 32 0] 
r 1.554481195 _3_ RTR  --- 24 message 32 [0 ffffffff b 800] ------- [11:255 -1:255 32 0] 
r 1.554481198 _14_ RTR  --- 24 message 32 [0 ffffffff b 800] ------- [11:255 -1:255 32 0] 
r 1.554481216 _10_ RTR  --- 24 message 32 [0 ffffffff b 800] ------- [11:255 -1:255 32 0] 
r 1.554481297 _19_ RTR  --- 24 message 32 [0 ffffffff b 800] ------- [11:255 -1:255 32 0] 
s 1.571165976 _9_ RTR  --- 25 message 32 [0 0 0 0] ------- [9:255 -1:255 32 0] 
r 1.574576007 _11_ RTR  --- 25 message 32 [0 ffffffff 9 800] ------- [9:255 -1:255 32 0] 
r 1.574576092 _8_ RTR  --- 25 message 32 [0 ffffffff 9 800] ------- [9:255 -1:255 32 0] 
r 1.574576211 _17_ RTR  --- 25 message 32 [0 ffffffff 9 800] ------- [9:255 -1:255 32 0] 
r 1.574576264 _12_ RTR  --- 25 message 32 [0 ffffffff 9 800] ------- [9:255 -1:255 32 0] 
r 1.574576295 _5_ RTR  --- 25 message 32 [0 ffffffff 9 800] ------- [9:255 -1:255 32 0] 
r 1.574576305 _6_ RTR  --- 25 message 32 [0 ffffffff 9 800] ------- [9:255 -1:255 32 0] 
r 1.574576334 _0_ RTR  --- 25 message 32 [0 ffffffff 9 800] ------- [9:255 -1:255 32 0] 
r 1.574576400 _16_ RTR  --- 25 message 32 [0 ffffffff 9 800] ------- [9:255 -1:255 32 0] 
r 1.574576453 _4_ RTR  --- 25 message 32 [0 ffffffff 9 800] ------- [9:255 -1:255 32 0] 
r 1.574576472 _15_ RTR  --- 25 message 32 [0 ffffffff 9 800] ------- [9:255 -1:255 32 0] 
r 1.574576485 _7_ RTR  --- 25 message 32 [0 ffffffff 9 800] ------- [9:255 -1:255 32 0] 
r 1.574576507 _13_ RTR  --- 25 message 32 [0 ffffffff 9 800] ------- [9:255 -1:255 32 0] 
r 1.574576509 _1_ RTR  --- 25 message 32 [0 ffffffff 9 800] ------- [9:255 -1:255 32 0] 
r 1.574576522 _2_ RTR  --- 25 message 32 [0 ffffffff 9 800] ------- [9:255 -1:255 32 0] 
r 1.574576568 _18_ RTR  --- 25 message 32 [0 ffffffff 9 800] ------- [9:255 -1:255 32 0] 
r 1.574576584 _3_ RTR  --- 25 message 32 [0 ffffffff 9 800] ------- [9:255 -1:255 32 0] 
r 1.574576586 _14_ RTR  --- 25 message 32 [0 ffffffff 9 800] ------- [9:255 -1:255 32 0] 
r 1.574576597 _10_ RTR  --- 25 message 32 [0 ffffffff 9 800] ------- [9:255 -1:255 32 0] 
r 1.574576677 _19_ RTR  --- 25 message 32 [0 ffffffff 9 800] ------- [9:255 -1:255 32 0] 